# vtk DataFile Version 2.0
Test data for unstructured grid ASCII format
ASCII
DATASET UNSTRUCTURED_GRID
POINTS 5 double
2.000000000000000    3.000000000000000    0.100000000000000   
5.000000000000000    3.000000000000000    0.000000000000000   
6.000000000000000    4.000000000000000    0.000000000000000   
5.500000000000000    5.200000000000000    0.000000000000000   
4.000000000000000    5.000000000000000    0.000000000000000   
CELLS 2 9
3 0 1 4
4 1 2 3 4
CELL_TYPES 2
5
9
POINT_DATA 5
SCALARS Temperature double 1
LOOKUP_TABLE default
200.000000000000000 300.000000000000000 250.000000000000000 230.000000000000000 400.000000000000000 
SCALARS Pressure double 1
LOOKUP_TABLE default
126920.010000000000000 133028.180000000000000 83980.670000000000000 85415.180000000000000 62601.260000000000000 
VECTORS Velocity double
4.120000000000000 -0.680000000000000 2.670000000000000
-2.650000000000000 0.000000000000000 1.140000000000000
-0.000000000000000 2.090000000000000 0.150000000000000
-0.730000000000000 0.390000000000000 0.640000000000000
-0.750000000000000 1.220000000000000 -0.330000000000000
CELL_DATA 2
SCALARS speed double 1
LOOKUP_TABLE default
1.500000000000000 20.800000000000000 
VECTORS Vorticity double
-6.230000000000000 8.870000000000000 -6.280000000000000
15.790000000000000 -14.540000000000000 -2.300000000000000
VECTORS Acceleration double
0.340000000000000 -1.700000000000000 0.720000000000000
0.330000000000000 -1.550000000000000 -0.000000000000000
