<?xml version="1.0" encoding="UTF-8"?><VTKFile byte_order="LittleEndian" type="UnstructuredGrid" version="0.1"><UnstructuredGrid><Piece NumberOfCells="2" NumberOfPoints="5"><PointData><DataArray Name="Temperature" format="ascii" type="Float64">200.0 300.0 250.0 230.0 400.0</DataArray><DataArray Name="Pressure" format="ascii" type="Float64">126920.01 133028.18 83980.67 85415.18 62601.26</DataArray><DataArray Name="Velocity" NumberOfComponents="3" format="ascii" type="Float64">4.12 -0.68 2.67 -2.65 0.0 1.14 -0.0 2.09 0.15 -0.73 0.39 0.64 -0.75 1.22 -0.33</DataArray></PointData><CellData><DataArray Name="speed" format="ascii" type="Float64">1.5 20.8</DataArray><DataArray Name="Vorticity" NumberOfComponents="3" format="ascii" type="Float64">-6.23 8.87 -6.28 15.79 -14.54 -2.3</DataArray><DataArray Name="Acceleration" NumberOfComponents="3" format="ascii" type="Float64">0.34 -1.7 0.72 0.33 -1.55 -0.0</DataArray></CellData><Points><DataArray NumberOfComponents="3" format="ascii" type="Float64">2.0 3.0 0.0 5.0 3.0 0.0 6.0 4.0 0.0 5.5 5.2 0.0 4.0 5.0 0.0</DataArray></Points><Cells><DataArray Name="connectivity" format="ascii" type="Int32">0 1 4 1 2 3 4</DataArray><DataArray Name="offsets" format="ascii" type="Int32">3 7</DataArray><DataArray Name="types" format="ascii" type="Int8">5 9</DataArray></Cells></Piece></UnstructuredGrid></VTKFile>